unknown system                          
           1
    16.047501    0.000000    0.000000
   -12.500000   21.650635    0.000000
     0.000000    0.000000   18.533400
   Te   Zr   I 
    28    11     1
Direct configuration=     1
   0.18939000  0.24096000  0.07309000
   0.42447999  0.22529000  0.06156000
   0.69177002  0.24535000  0.06926000
   0.94510001  0.24676999  0.06419000
   0.19344000  0.40059999  0.07921000
   0.43809000  0.40197000  0.08063000
   0.67535001  0.38611999  0.06638000
   0.94130999  0.40380999  0.07826000
   0.17222001  0.54958999  0.08758000
   0.44758999  0.54898000  0.17645000
   0.10476000  0.29181001  0.27065000
   0.35317001  0.28558999  0.26703000
   0.59649003  0.28766000  0.26186001
   0.84977001  0.28970999  0.26725000
   0.09091000  0.43669000  0.28674999
   0.35420001  0.45084000  0.27307999
   0.62278998  0.45583001  0.15504999
   0.83396000  0.45815000  0.25183999
   0.09718000  0.60711002  0.25986001
   0.27046999  0.61935002  0.20821001
   0.16562000  0.07959000  0.06747000
   0.46019000  0.08256000  0.06030000
   0.60697001  0.07401000  0.13083000
   0.00497000  0.07235000  0.13637000
   0.09496000  0.13184001  0.26355001
   0.34962001  0.12232000  0.25156000
   0.61249000  0.13212000  0.26007000
   0.83342999  0.10769000  0.20823000
   0.02468000  0.19663000  0.16661000
   0.26716000  0.17738000  0.16831000
   0.51480001  0.17861000  0.16418000
   0.78298998  0.19787000  0.16196001
   0.02041000  0.34251002  0.16936000
   0.27247000  0.33971000  0.17370001
   0.50110000  0.32308000  0.15933000
   0.76941001  0.34643000  0.17291000
   0.01166000  0.48842999  0.19513001
   0.24664999  0.49140000  0.18515000
   0.61321002  0.65030998  0.27917999
   0.46505001  0.56948000  0.36116001
Direct configuration=     2
   0.18939427  0.24096051  0.07308479
   0.42448313  0.22528998  0.06156056
   0.69176665  0.24535198  0.06926068
   0.94509836  0.24676438  0.06419016
   0.19345868  0.40062147  0.07920785
   0.43804962  0.40195560  0.08062709
   0.67536202  0.38611680  0.06638298
   0.94130954  0.40381432  0.07825780
   0.17221282  0.54958373  0.08758445
   0.44808476  0.54922756  0.17631155
   0.10475000  0.29180720  0.27065610
   0.35316926  0.28558841  0.26703193
   0.59648625  0.28766095  0.26186016
   0.84977480  0.28971696  0.26726428
   0.09094730  0.43671376  0.28673754
   0.35387945  0.45050262  0.27291859
   0.62280606  0.45584199  0.15506510
   0.83395953  0.45815225  0.25184586
   0.09718877  0.60711833  0.25986553
   0.27049829  0.61935948  0.20820934
   0.16562049  0.07958623  0.06746810
   0.46018344  0.08256017  0.06029698
   0.60697855  0.07401374  0.13082929
   0.00495591  0.07234734  0.13636794
   0.09496388  0.13184020  0.26355264
   0.34961523  0.12231666  0.25156645
   0.61248556  0.13212085  0.26007322
   0.83342040  0.10768343  0.20823432
   0.02469445  0.19664825  0.16660115
   0.26716513  0.17738780  0.16830973
   0.51480272  0.17861494  0.16417905
   0.78300179  0.19787611  0.16195064
   0.02040987  0.34250304  0.16936603
   0.27246989  0.33971915  0.17368821
   0.50110414  0.32308064  0.15932804
   0.76941825  0.34642492  0.17290100
   0.01166844  0.48841760  0.19512355
   0.24643549  0.49130708  0.18517244
   0.61275294  0.65005592  0.27903557
   0.46545396  0.56984765  0.36158333
Direct configuration=     3
   0.18940707  0.24096202  0.07306916
   0.42449254  0.22528993  0.06156224
   0.69175654  0.24535789  0.06926270
   0.94509339  0.24674752  0.06419063
   0.19351472  0.40068591  0.07920142
   0.43792848  0.40191242  0.08061838
   0.67539804  0.38610721  0.06639190
   0.94130818  0.40382729  0.07825121
   0.17219125  0.54956493  0.08759780
   0.44956905  0.54997025  0.17589621
   0.10471999  0.29179880  0.27067440
   0.35316701  0.28558367  0.26703771
   0.59647494  0.28766379  0.26186060
   0.84978917  0.28973787  0.26730710
   0.09105921  0.43678504  0.28670018
   0.35291777  0.44949048  0.27243439
   0.62285429  0.45587793  0.15511042
   0.83395813  0.45815898  0.25186346
   0.09721507  0.60714324  0.25988208
   0.27058319  0.61938786  0.20820734
   0.16562198  0.07957492  0.06746240
   0.46016376  0.08256068  0.06028791
   0.60700417  0.07402498  0.13082716
   0.00491366  0.07233934  0.13636176
   0.09497553  0.13184078  0.26356051
   0.34960087  0.12230665  0.25158580
   0.61247225  0.13212342  0.26008290
   0.83339161  0.10766372  0.20824728
   0.02473781  0.19670300  0.16657458
   0.26718054  0.17741120  0.16830892
   0.51481085  0.17862978  0.16417622
   0.78303721  0.19789442  0.16192256
   0.02040948  0.34248213  0.16938415
   0.27246955  0.33974663  0.17365284
   0.50111655  0.32308256  0.15932217
   0.76944295  0.34640967  0.17287399
   0.01169378  0.48838043  0.19510420
   0.24579198  0.49102832  0.18523975
   0.61138169  0.64929372  0.27860230
   0.46666581  0.57095060  0.36285329
Direct configuration=     4
   0.18943268  0.24096504  0.07303790
   0.42451137  0.22528982  0.06156560
   0.69173632  0.24536973  0.06926675
   0.94508347  0.24671381  0.06419158
   0.19362679  0.40081479  0.07918856
   0.43768620  0.40182606  0.08060094
   0.67547010  0.38608803  0.06640976
   0.94130548  0.40385322  0.07823804
   0.17214811  0.54952735  0.08762449
   0.45253763  0.55145563  0.17506552
   0.10465998  0.29178198  0.27071101
   0.35316252  0.28557419  0.26704928
   0.59645232  0.28766946  0.26186149
   0.84981792  0.28977970  0.26739275
   0.09128302  0.43692759  0.28662546
   0.35099442  0.44746621  0.27146598
   0.62295075  0.45594982  0.15520105
   0.83395533  0.45817246  0.25189867
   0.09726766  0.60719308  0.25991519
   0.27075298  0.61944462  0.20820335
   0.16562495  0.07955231  0.06745101
   0.46012441  0.08256169  0.06026979
   0.60705541  0.07404744  0.13082289
   0.00482915  0.07232333  0.13634939
   0.09499884  0.13184193  0.26357626
   0.34957215  0.12228664  0.25162450
   0.61244563  0.13212855  0.26010226
   0.83333404  0.10762431  0.20827318
   0.02482452  0.19681249  0.16652144
   0.26721135  0.17745800  0.16830730
   0.51482711  0.17865945  0.16417057
   0.78310805  0.19793105  0.16186638
   0.02040871  0.34244030  0.16942037
   0.27246888  0.33980157  0.17358210
   0.50114137  0.32308640  0.15931043
   0.76949236  0.34637918  0.17281996
   0.01174445  0.48830610  0.19506548
   0.24450497  0.49047081  0.18537438
   0.60863919  0.64776933  0.27773576
   0.46908951  0.57315650  0.36539320
Direct configuration=     5
   0.18948389  0.24097109  0.07297538
   0.42454902  0.22528960  0.06157233
   0.69169588  0.24539340  0.06927486
   0.94506363  0.24664640  0.06419347
   0.19385093  0.40107256  0.07916284
   0.43720165  0.40165333  0.08056608
   0.67561420  0.38604968  0.06644546
   0.94130006  0.40390510  0.07821169
   0.17206183  0.54945218  0.08767787
   0.45847480  0.55442639  0.17340415
   0.10453995  0.29174835  0.27078421
   0.35315354  0.28555523  0.26707241
   0.59640706  0.28768081  0.26186326
   0.84987541  0.28986336  0.26756405
   0.09173063  0.43721270  0.28647603
   0.34714771  0.44341766  0.26952918
   0.62314367  0.45609360  0.15538232
   0.83394973  0.45819942  0.25196907
   0.09737286  0.60729274  0.25998141
   0.27109257  0.61955815  0.20819536
   0.16563090  0.07950707  0.06742823
   0.46004570  0.08256372  0.06023353
   0.60715789  0.07409237  0.13081435
   0.00466012  0.07229133  0.13632466
   0.09504545  0.13184425  0.26360775
   0.34951472  0.12224661  0.25170189
   0.61239239  0.13213881  0.26014098
   0.83321890  0.10754549  0.20832500
   0.02499795  0.19703148  0.16641516
   0.26727296  0.17755161  0.16830405
   0.51485962  0.17871879  0.16415925
   0.78324973  0.19800431  0.16175403
   0.02040716  0.34235664  0.16949281
   0.27246754  0.33991147  0.17344062
   0.50119101  0.32309407  0.15928696
   0.76959118  0.34631818  0.17271191
   0.01184578  0.48815742  0.19498805
   0.24193093  0.48935577  0.18564365
   0.60315418  0.64472056  0.27600269
   0.47393691  0.57756829  0.37047303
Direct configuration=     6
   0.18958631  0.24098319  0.07285035
   0.42462432  0.22528916  0.06158577
   0.69161500  0.24544075  0.06929106
   0.94502394  0.24651157  0.06419725
   0.19429920  0.40158810  0.07911140
   0.43623255  0.40130786  0.08049635
   0.67590241  0.38597298  0.06651687
   0.94128923  0.40400884  0.07815899
   0.17188926  0.54930184  0.08778463
   0.47034913  0.56036790  0.17008140
   0.10429991  0.29168109  0.27093063
   0.35313558  0.28551731  0.26711868
   0.59631656  0.28770350  0.26186680
   0.84999040  0.29003068  0.26790665
   0.09262586  0.43778291  0.28617716
   0.33945430  0.43532058  0.26565556
   0.62352952  0.45638116  0.15574486
   0.83393853  0.45825333  0.25210988
   0.09758325  0.60749207  0.26011385
   0.27177175  0.61978520  0.20817939
   0.16564279  0.07941660  0.06738266
   0.45988829  0.08256777  0.06016102
   0.60736285  0.07418222  0.13079728
   0.00432208  0.07222733  0.13627518
   0.09513868  0.13184887  0.26367075
   0.34939986  0.12216656  0.25185668
   0.61228590  0.13215934  0.26021842
   0.83298862  0.10738784  0.20842863
   0.02534481  0.19746947  0.16620261
   0.26739620  0.17773882  0.16829755
   0.51492465  0.17883747  0.16413662
   0.78353310  0.19815084  0.16152933
   0.02040406  0.34218932  0.16963771
   0.27246486  0.34013125  0.17315765
   0.50129030  0.32310941  0.15924000
   0.76978882  0.34619620  0.17249580
   0.01204845  0.48786006  0.19483319
   0.23678287  0.48712569  0.18618218
   0.59218418  0.63862300  0.27253655
   0.48363170  0.58639188  0.38063270
Direct configuration=     7
   0.18927830  0.24070153  0.07253688
   0.42466399  0.22527716  0.06158231
   0.69159256  0.24542512  0.06923417
   0.94512884  0.24661707  0.06411744
   0.19396701  0.40147789  0.07870113
   0.43658590  0.40126756  0.08022482
   0.67589148  0.38601308  0.06659818
   0.94129797  0.40400586  0.07811371
   0.17182971  0.54936312  0.08774088
   0.47350806  0.56250800  0.16989238
   0.10344111  0.29123872  0.27085801
   0.35330001  0.28539267  0.26689176
   0.59636243  0.28774520  0.26183847
   0.85014145  0.29009598  0.26791407
   0.09203633  0.43757185  0.28681021
   0.33803085  0.43481433  0.26578138
   0.62335826  0.45632290  0.15571792
   0.83404233  0.45823766  0.25206104
   0.09777342  0.60746444  0.26005501
   0.27173544  0.61966779  0.20814477
   0.16564801  0.07941631  0.06743521
   0.45991256  0.08260591  0.06019249
   0.60743723  0.07425324  0.13078985
   0.00431067  0.07222095  0.13632313
   0.09509051  0.13187271  0.26359103
   0.34947083  0.12216524  0.25181033
   0.61233046  0.13221011  0.26017131
   0.83290513  0.10742577  0.20839131
   0.02580432  0.19761427  0.16620637
   0.26727221  0.17773487  0.16833308
   0.51475970  0.17874700  0.16420063
   0.78350558  0.19806854  0.16168264
   0.02007186  0.34192188  0.16963821
   0.27205003  0.33970189  0.17291072
   0.50118935  0.32316413  0.15926925
   0.76985050  0.34625566  0.17260031
   0.01183267  0.48798553  0.19479505
   0.23873582  0.48711782  0.18658959
   0.58972017  0.63706682  0.26926046
   0.48441704  0.58774340  0.38454451
Direct configuration=     8
   0.18907428  0.24051496  0.07232925
   0.42469026  0.22526921  0.06158001
   0.69157769  0.24541477  0.06919649
   0.94519832  0.24668696  0.06406457
   0.19374697  0.40140489  0.07842939
   0.43681994  0.40124086  0.08004496
   0.67588424  0.38603964  0.06665203
   0.94130376  0.40400389  0.07808372
   0.17179027  0.54940371  0.08771190
   0.47560045  0.56392554  0.16976718
   0.10287227  0.29094571  0.27080992
   0.35340893  0.28531012  0.26674146
   0.59639282  0.28777283  0.26181971
   0.85024151  0.29013924  0.26791899
   0.09164584  0.43743204  0.28722952
   0.33708800  0.43447901  0.26586472
   0.62324482  0.45628431  0.15570008
   0.83411107  0.45822728  0.25202869
   0.09789938  0.60744614  0.26001604
   0.27171139  0.61959003  0.20812185
   0.16565146  0.07941612  0.06747001
   0.45992863  0.08263118  0.06021333
   0.60748649  0.07430028  0.13078494
   0.00430311  0.07221672  0.13635489
   0.09505861  0.13188850  0.26353823
   0.34951785  0.12216437  0.25177962
   0.61235997  0.13224373  0.26014011
   0.83284983  0.10745088  0.20836659
   0.02610869  0.19771018  0.16620887
   0.26719009  0.17773225  0.16835661
   0.51465045  0.17868708  0.16424302
   0.78348734  0.19801403  0.16178419
   0.01985182  0.34174473  0.16963854
   0.27177525  0.33941749  0.17274717
   0.50112249  0.32320037  0.15928861
   0.76989136  0.34629505  0.17266954
   0.01168973  0.48806864  0.19476979
   0.24002940  0.48711260  0.18685945
   0.58808808  0.63603605  0.26709047
   0.48493723  0.58863861  0.38713558
Direct configuration=     9
   0.18874208  0.24020413  0.07195419
   0.42470514  0.22526427  0.06160176
   0.69159071  0.24539426  0.06918019
   0.94528789  0.24682214  0.06400408
   0.19330619  0.40120472  0.07816069
   0.43739515  0.40125624  0.07976896
   0.67584527  0.38609120  0.06672293
   0.94133965  0.40397244  0.07808230
   0.17183305  0.54942420  0.08775782
   0.47459939  0.56384994  0.16869974
   0.10199268  0.29043531  0.27071751
   0.35352650  0.28516654  0.26650389
   0.59648317  0.28782122  0.26179509
   0.85036106  0.29016224  0.26785188
   0.09110729  0.43721932  0.28748415
   0.33714994  0.43571543  0.26692704
   0.62298280  0.45618175  0.15559503
   0.83413960  0.45821800  0.25197575
   0.09809273  0.60739616  0.25997007
   0.27153887  0.61939446  0.20807622
   0.16565244  0.07942600  0.06753720
   0.45998890  0.08266542  0.06025138
   0.60750706  0.07434499  0.13077067
   0.00436293  0.07221089  0.13640066
   0.09497533  0.13190935  0.26348473
   0.34958289  0.12217175  0.25170384
   0.61243210  0.13229844  0.26010528
   0.83287044  0.10755048  0.20828369
   0.02632860  0.19764913  0.16620243
   0.26705472  0.17764975  0.16836123
   0.51449477  0.17859017  0.16429387
   0.78339293  0.19789856  0.16194880
   0.01953954  0.34160802  0.16961915
   0.27135119  0.33901047  0.17255593
   0.50098303  0.32320240  0.15926684
   0.76984861  0.34635518  0.17278010
   0.01172524  0.48820885  0.19479380
   0.24266989  0.48738189  0.18734885
   0.58830257  0.63620850  0.26731112
   0.48519773  0.58896582  0.38770116
Direct configuration=    10
   0.18803640  0.23954383  0.07115745
   0.42473676  0.22525378  0.06164796
   0.69161836  0.24535069  0.06914556
   0.94547816  0.24710929  0.06387558
   0.19236984  0.40077949  0.07758990
   0.43861705  0.40128893  0.07918266
   0.67576248  0.38620071  0.06687354
   0.94141590  0.40390563  0.07807929
   0.17192392  0.54946773  0.08785538
   0.47247287  0.56368935  0.16643220
   0.10012418  0.28935107  0.27052122
   0.35377626  0.28486152  0.26599921
   0.59667510  0.28792401  0.26174281
   0.85061502  0.29021110  0.26770932
   0.08996328  0.43676743  0.28802507
   0.33728153  0.43834196  0.26918371
   0.62242621  0.45596387  0.15537189
   0.83420021  0.45819828  0.25186329
   0.09850347  0.60728999  0.25987241
   0.27117239  0.61897900  0.20797929
   0.16565452  0.07944698  0.06767993
   0.46011692  0.08273815  0.06033220
   0.60755075  0.07443997  0.13074036
   0.00449001  0.07219850  0.13649788
   0.09479843  0.13195365  0.26337110
   0.34972107  0.12218745  0.25154287
   0.61258533  0.13241464  0.26003130
   0.83291422  0.10776206  0.20810759
   0.02679574  0.19751943  0.16618876
   0.26676715  0.17747449  0.16837105
   0.51416405  0.17838432  0.16440188
   0.78319237  0.19765325  0.16229847
   0.01887617  0.34131761  0.16957795
   0.27045037  0.33814584  0.17214970
   0.50068676  0.32320671  0.15922057
   0.76975781  0.34648293  0.17301495
   0.01180066  0.48850669  0.19484481
   0.24827904  0.48795393  0.18838847
   0.58875822  0.63657484  0.26777984
   0.48575111  0.58966090  0.38890261
Direct configuration=    11
   0.18798104  0.23949203  0.07109494
   0.42473924  0.22525296  0.06165158
   0.69162053  0.24534728  0.06914284
   0.94549308  0.24713182  0.06386550
   0.19229638  0.40074613  0.07754512
   0.43871291  0.40129149  0.07913666
   0.67575598  0.38620930  0.06688536
   0.94142188  0.40390039  0.07807905
   0.17193105  0.54947114  0.08786303
   0.47230604  0.56367675  0.16625431
   0.09997759  0.28926601  0.27050582
   0.35379586  0.28483759  0.26595961
   0.59669015  0.28793208  0.26173871
   0.85063494  0.29021493  0.26769814
   0.08987353  0.43673198  0.28806750
   0.33729185  0.43854801  0.26936075
   0.62238254  0.45594677  0.15535438
   0.83420496  0.45819673  0.25185446
   0.09853569  0.60728166  0.25986475
   0.27114363  0.61894641  0.20797169
   0.16565469  0.07944862  0.06769113
   0.46012697  0.08274386  0.06033854
   0.60755418  0.07444742  0.13073798
   0.00449998  0.07219753  0.13650551
   0.09478456  0.13195713  0.26336218
   0.34973191  0.12218868  0.25153024
   0.61259735  0.13242376  0.26002549
   0.83291765  0.10777866  0.20809377
   0.02683239  0.19750925  0.16618769
   0.26674459  0.17746074  0.16837182
   0.51413811  0.17836817  0.16441036
   0.78317663  0.19763400  0.16232591
   0.01882413  0.34129483  0.16957472
   0.27037970  0.33807801  0.17211784
   0.50066352  0.32320705  0.15921694
   0.76975069  0.34649296  0.17303338
   0.01180658  0.48853006  0.19484881
   0.24871909  0.48799881  0.18847003
   0.58879397  0.63660358  0.26781661
   0.48579452  0.58971543  0.38899687
Direct configuration=    12
   0.18786196  0.23933986  0.07075808
   0.42468940  0.22522751  0.06168103
   0.69164396  0.24534121  0.06925569
   0.94541551  0.24717042  0.06390744
   0.19226960  0.40073237  0.07796038
   0.43895200  0.40121365  0.07896717
   0.67581024  0.38620168  0.06691705
   0.94148067  0.40384701  0.07819384
   0.17207938  0.54926859  0.08810804
   0.47198517  0.56442859  0.16584246
   0.09953228  0.28893894  0.27054419
   0.35363492  0.28476105  0.26584244
   0.59677116  0.28796969  0.26171975
   0.85063758  0.29019160  0.26769324
   0.08996140  0.43679732  0.28743456
   0.33724663  0.43874228  0.27046617
   0.62216530  0.45597409  0.15530500
   0.83407417  0.45824103  0.25180842
   0.09873975  0.60730656  0.25999927
   0.27120698  0.61870342  0.20795932
   0.16563598  0.07938657  0.06769858
   0.46013753  0.08274098  0.06031872
   0.60751673  0.07443840  0.13072348
   0.00449129  0.07209974  0.13650009
   0.09470274  0.13194267  0.26346209
   0.34961436  0.12213997  0.25153370
   0.61263367  0.13246242  0.26008835
   0.83305145  0.10784302  0.20802043
   0.02645569  0.19715414  0.16584289
   0.26669009  0.17731178  0.16827248
   0.51422062  0.17840749  0.16437327
   0.78316062  0.19764094  0.16226139
   0.01870253  0.34142428  0.16953011
   0.27040295  0.33850588  0.17249101
   0.50059546  0.32307256  0.15907041
   0.76963423  0.34652226  0.17301488
   0.01246988  0.48857277  0.19488563
   0.24988779  0.48820710  0.18853382
   0.58772108  0.63604918  0.26763028
   0.48639735  0.59018098  0.38893487
Direct configuration=    13
   0.18751430  0.23889557  0.06977454
   0.42454390  0.22515319  0.06176701
   0.69171238  0.24532351  0.06958516
   0.94518900  0.24728310  0.06402989
   0.19219139  0.40069219  0.07917282
   0.43965008  0.40098639  0.07847230
   0.67596864  0.38617943  0.06700957
   0.94165231  0.40369117  0.07852900
   0.17251244  0.54867718  0.08882339
   0.47104830  0.56662378  0.16463995
   0.09823208  0.28798399  0.27065624
   0.35316503  0.28453758  0.26550033
   0.59700768  0.28807950  0.26166439
   0.85064526  0.29012350  0.26767895
   0.09021798  0.43698809  0.28558650
   0.33711459  0.43930949  0.27369373
   0.62153100  0.45605385  0.15516084
   0.83369228  0.45837036  0.25167397
   0.09933555  0.60737927  0.26039203
   0.27139192  0.61799396  0.20792323
   0.16558138  0.07920540  0.06772033
   0.46016838  0.08273256  0.06026085
   0.60740738  0.07441206  0.13068113
   0.00446591  0.07181421  0.13648426
   0.09446386  0.13190044  0.26375380
   0.34927114  0.12199775  0.25154381
   0.61273974  0.13257530  0.26027188
   0.83344211  0.10803094  0.20780630
   0.02535582  0.19611732  0.16483618
   0.26653097  0.17687686  0.16798243
   0.51446154  0.17852230  0.16426500
   0.78311385  0.19766121  0.16207302
   0.01834748  0.34180224  0.16939987
   0.27047084  0.33975517  0.17358060
   0.50039674  0.32267988  0.15864258
   0.76929422  0.34660782  0.17296087
   0.01440656  0.48869749  0.19499312
   0.25330010  0.48881524  0.18872005
   0.58458850  0.63443045  0.26708625
   0.48815745  0.59154027  0.38875387
Direct configuration=    14
   0.18766666  0.23909595  0.06986232
   0.42442205  0.22502873  0.06163737
   0.69165666  0.24531759  0.06962385
   0.94504724  0.24731044  0.06401860
   0.19247269  0.40075080  0.07964406
   0.43973425  0.40083262  0.07836260
   0.67604333  0.38618406  0.06700055
   0.94174159  0.40366699  0.07860131
   0.17275577  0.54833803  0.08887686
   0.47002356  0.56736733  0.16353002
   0.09778369  0.28761495  0.27042709
   0.35295514  0.28451366  0.26531000
   0.59703153  0.28809119  0.26163748
   0.85059730  0.29007179  0.26767194
   0.09086311  0.43700438  0.28516457
   0.33689846  0.43900523  0.27492919
   0.62125604  0.45605313  0.15509592
   0.83388792  0.45846370  0.25141852
   0.09964349  0.60738701  0.26060321
   0.27168856  0.61784423  0.20813315
   0.16550440  0.07900559  0.06762489
   0.46014369  0.08272326  0.06021874
   0.60735116  0.07442070  0.13073099
   0.00448520  0.07161616  0.13653951
   0.09437495  0.13186279  0.26375317
   0.34917841  0.12193383  0.25152140
   0.61277061  0.13260301  0.26030534
   0.83339131  0.10796181  0.20776007
   0.02523513  0.19596556  0.16440870
   0.26634082  0.17673765  0.16792108
   0.51458412  0.17852405  0.16430189
   0.78308130  0.19770680  0.16200515
   0.01818367  0.34178694  0.16947430
   0.27037063  0.34015446  0.17415953
   0.50033009  0.32259253  0.15861881
   0.76930522  0.34677304  0.17308990
   0.01459389  0.48890058  0.19490207
   0.25399749  0.48897936  0.18873964
   0.58447801  0.63439026  0.26672477
   0.48841094  0.59191978  0.38920149
Direct configuration=    15
   0.18812372  0.23969712  0.07012566
   0.42405653  0.22465534  0.06124844
   0.69148949  0.24529985  0.06973990
   0.94462195  0.24739244  0.06398473
   0.19331659  0.40092664  0.08105775
   0.43998674  0.40037131  0.07803351
   0.67626742  0.38619797  0.06697351
   0.94200942  0.40359444  0.07881823
   0.17348573  0.54732058  0.08903727
   0.46694935  0.56959798  0.16020024
   0.09643854  0.28650784  0.26973965
   0.35232547  0.28444191  0.26473901
   0.59710310  0.28812626  0.26155677
   0.85045343  0.28991666  0.26765093
   0.09279850  0.43705324  0.28389877
   0.33625008  0.43809245  0.27863558
   0.62043113  0.45605097  0.15490117
   0.83447487  0.45874372  0.25065218
   0.10056729  0.60741025  0.26123674
   0.27257848  0.61739502  0.20876291
   0.16527345  0.07840616  0.06733857
   0.46006965  0.08269537  0.06009242
   0.60718247  0.07444661  0.13088055
   0.00454309  0.07102200  0.13670527
   0.09410822  0.13174984  0.26375128
   0.34890022  0.12174206  0.25145415
   0.61286323  0.13268614  0.26040574
   0.83323889  0.10775442  0.20762137
   0.02487306  0.19551030  0.16312626
   0.26577036  0.17632002  0.16773704
   0.51495187  0.17852930  0.16441254
   0.78298366  0.19784357  0.16180153
   0.01769225  0.34174107  0.16969761
   0.27007000  0.34135236  0.17589630
   0.50013016  0.32233047  0.15854751
   0.76933822  0.34726870  0.17347697
   0.01515587  0.48950985  0.19462892
   0.25608965  0.48947174  0.18879839
   0.58414655  0.63426970  0.26564032
   0.48917141  0.59305831  0.39054436
Direct configuration=    16
   0.18903785  0.24089946  0.07065236
   0.42332547  0.22390857  0.06047058
   0.69115517  0.24526438  0.06997202
   0.94377137  0.24755644  0.06391700
   0.19500438  0.40127832  0.08388513
   0.44049173  0.39944870  0.07737532
   0.67671560  0.38622578  0.06691942
   0.94254507  0.40344935  0.07925208
   0.17494566  0.54528569  0.08935809
   0.46080093  0.57405929  0.15354066
   0.09374822  0.28429363  0.26836478
   0.35106612  0.28429841  0.26359703
   0.59724622  0.28819639  0.26139534
   0.85016568  0.28960640  0.26760890
   0.09666927  0.43715097  0.28136716
   0.33495332  0.43626689  0.28604835
   0.61878133  0.45604664  0.15451168
   0.83564876  0.45930376  0.24911950
   0.10241488  0.60745672  0.26250381
   0.27435831  0.61649661  0.21002243
   0.16481156  0.07720730  0.06676593
   0.45992156  0.08263959  0.05983977
   0.60684511  0.07449844  0.13117967
   0.00465886  0.06983369  0.13703679
   0.09357478  0.13152393  0.26374750
   0.34834383  0.12135852  0.25131966
   0.61304845  0.13285239  0.26060653
   0.83293407  0.10733965  0.20734397
   0.02414891  0.19459978  0.16056138
   0.26462945  0.17548474  0.16736895
   0.51568735  0.17853981  0.16463385
   0.78278837  0.19811710  0.16139431
   0.01670942  0.34164933  0.17014422
   0.26946873  0.34374814  0.17936985
   0.49973028  0.32180636  0.15840490
   0.76940423  0.34826001  0.17425112
   0.01627984  0.49072839  0.19408261
   0.26027399  0.49045648  0.18891588
   0.58348362  0.63402857  0.26347142
   0.49069235  0.59533536  0.39323009
Direct configuration=    17
   0.18846862  0.24015076  0.07032439
   0.42378070  0.22437358  0.06095495
   0.69136335  0.24528647  0.06982748
   0.94430102  0.24745432  0.06395918
   0.19395339  0.40105933  0.08212452
   0.44017727  0.40002321  0.07778517
   0.67643652  0.38620846  0.06695310
   0.94221152  0.40353970  0.07898192
   0.17403656  0.54655281  0.08915832
   0.46462955  0.57128123  0.15768758
   0.09542348  0.28567242  0.26922091
   0.35185031  0.28438777  0.26430814
   0.59715710  0.28815272  0.26149586
   0.85034486  0.28979960  0.26763507
   0.09425894  0.43709011  0.28294359
   0.33576081  0.43740366  0.28143242
   0.61980866  0.45604933  0.15475422
   0.83491778  0.45895502  0.25007390
   0.10126438  0.60742778  0.26171481
   0.27325001  0.61705605  0.20923813
   0.16509918  0.07795383  0.06712251
   0.46001378  0.08267433  0.05999709
   0.60705519  0.07446617  0.13099340
   0.00458677  0.07057365  0.13683036
   0.09390695  0.13166460  0.26374986
   0.34869029  0.12159735  0.25140341
   0.61293311  0.13274886  0.26048150
   0.83312388  0.10759793  0.20751670
   0.02459984  0.19516676  0.16215853
   0.26533989  0.17600487  0.16759816
   0.51522937  0.17853327  0.16449604
   0.78290997  0.19794677  0.16164789
   0.01732143  0.34170646  0.16986611
   0.26984314  0.34225629  0.17720687
   0.49997928  0.32213272  0.15849370
   0.76936312  0.34764272  0.17376906
   0.01557994  0.48996961  0.19442279
   0.25766840  0.48984328  0.18884272
   0.58389642  0.63417872  0.26482199
   0.48974526  0.59391744  0.39155768
Direct configuration=    18
   0.18930609  0.24102267  0.07105343
   0.42362411  0.22419948  0.06093837
   0.69118225  0.24545862  0.06975770
   0.94412541  0.24755886  0.06366750
   0.19446003  0.40100719  0.08200606
   0.44002958  0.39965512  0.07786635
   0.67647190  0.38622701  0.06699074
   0.94241469  0.40360459  0.07889626
   0.17477868  0.54623267  0.08928347
   0.46354078  0.57320089  0.15584931
   0.09464849  0.28508591  0.26876442
   0.35186629  0.28433047  0.26408210
   0.59714480  0.28813959  0.26157167
   0.85033431  0.28981591  0.26774063
   0.09506207  0.43719969  0.28296329
   0.33490031  0.43673485  0.28245254
   0.61911738  0.45590135  0.15447399
   0.83547759  0.45941560  0.24973457
   0.10210584  0.60744680  0.26206608
   0.27377100  0.61690152  0.20953797
   0.16500794  0.07754769  0.06693309
   0.45994549  0.08274694  0.05999991
   0.60702807  0.07452343  0.13112002
   0.00477245  0.07020434  0.13693342
   0.09374861  0.13159666  0.26353251
   0.34870494  0.12156519  0.25120439
   0.61300857  0.13279307  0.26060508
   0.83273456  0.10746416  0.20733843
   0.02468869  0.19503982  0.16155781
   0.26476383  0.17571731  0.16738587
   0.51505964  0.17826455  0.16449541
   0.78257785  0.19767107  0.16162316
   0.01700264  0.34146712  0.17012505
   0.26981581  0.34257919  0.17849337
   0.49950889  0.32185820  0.15836670
   0.76945976  0.34774151  0.17385326
   0.01584725  0.49019536  0.19439865
   0.25901824  0.48996576  0.18980783
   0.58233586  0.63342471  0.26434702
   0.49088942  0.59499511  0.39173258
Direct configuration=    19
   0.19120441  0.24299906  0.07270599
   0.42326915  0.22380484  0.06090079
   0.69077174  0.24584885  0.06959953
   0.94372734  0.24779582  0.06300634
   0.19560845  0.40088901  0.08173754
   0.43969479  0.39882074  0.07805035
   0.67655210  0.38626906  0.06707605
   0.94287522  0.40375167  0.07870207
   0.17646085  0.54550699  0.08956718
   0.46107281  0.57755228  0.15168241
   0.09289178  0.28375643  0.26772968
   0.35190252  0.28420061  0.26356974
   0.59711692  0.28810982  0.26174350
   0.85031039  0.28985289  0.26797991
   0.09688256  0.43744808  0.28300796
   0.33294976  0.43521882  0.28476491
   0.61755042  0.45556590  0.15383877
   0.83674655  0.46045961  0.24896540
   0.10401321  0.60748993  0.26286233
   0.27495195  0.61655124  0.21021764
   0.16480113  0.07662708  0.06650373
   0.45979071  0.08291154  0.06000630
   0.60696660  0.07465323  0.13140704
   0.00519334  0.06936722  0.13716703
   0.09338967  0.13144266  0.26303985
   0.34873816  0.12149229  0.25075326
   0.61317961  0.13289327  0.26088522
   0.83185207  0.10716094  0.20693434
   0.02489010  0.19475206  0.16019613